V -t * -v 1.0a5 -a 0
A -t * -n 1 -p 0 -o 0x7fffffff -c 30 -a 1
A -t * -h 1 -m 1073741823 -s 0
n -t * -a 4 -s 4 -S UP -v circle -c black -i black
n -t * -a 0 -s 0 -S UP -v circle -c black -i black
n -t * -a 1 -s 1 -S UP -v circle -c black -i black
n -t * -a 2 -s 2 -S UP -v circle -c black -i black
n -t * -a 3 -s 3 -S UP -v circle -c black -i black
l -t * -s 0 -d 3 -S UP -r 1000000 -D 0.01 -c black
l -t * -s 1 -d 3 -S UP -r 1000000 -D 0.01 -c black
l -t * -s 2 -d 3 -S UP -r 1000000 -D 0.01 -c black
l -t * -s 3 -d 4 -S UP -r 1000000 -D 0.01 -c black
+ -t 5.60320154734775 -s 0 -d 3 -p exp -e 200 -c 0 -i 0 -a 0 -x {0.0 4.0 0 ------- null}
- -t 5.60320154734775 -s 0 -d 3 -p exp -e 200 -c 0 -i 0 -a 0 -x {0.0 4.0 0 ------- null}
h -t 5.60320154734775 -s 0 -d 3 -p exp -e 200 -c 0 -i 0 -a 0 -x {0.0 4.0 -1 ------- null}
r -t 5.61480154734775 -s 0 -d 3 -p exp -e 200 -c 0 -i 0 -a 0 -x {0.0 4.0 0 ------- null}
+ -t 5.61480154734775 -s 3 -d 4 -p exp -e 200 -c 0 -i 0 -a 0 -x {0.0 4.0 0 ------- null}
- -t 5.61480154734775 -s 3 -d 4 -p exp -e 200 -c 0 -i 0 -a 0 -x {0.0 4.0 0 ------- null}
h -t 5.61480154734775 -s 3 -d 4 -p exp -e 200 -c 0 -i 0 -a 0 -x {0.0 4.0 -1 ------- null}
+ -t 5.61920154734775 -s 0 -d 3 -p exp -e 200 -c 0 -i 1 -a 0 -x {0.0 4.0 1 ------- null}
- -t 5.61920154734775 -s 0 -d 3 -p exp -e 200 -c 0 -i 1 -a 0 -x {0.0 4.0 1 ------- null}
h -t 5.61920154734775 -s 0 -d 3 -p exp -e 200 -c 0 -i 1 -a 0 -x {0.0 4.0 -1 ------- null}
r -t 5.62640154734775 -s 3 -d 4 -p exp -e 200 -c 0 -i 0 -a 0 -x {0.0 4.0 0 ------- null}
r -t 5.63080154734775 -s 0 -d 3 -p exp -e 200 -c 0 -i 1 -a 0 -x {0.0 4.0 1 ------- null}
+ -t 5.63080154734775 -s 3 -d 4 -p exp -e 200 -c 0 -i 1 -a 0 -x {0.0 4.0 1 ------- null}
- -t 5.63080154734775 -s 3 -d 4 -p exp -e 200 -c 0 -i 1 -a 0 -x {0.0 4.0 1 ------- null}
h -t 5.63080154734775 -s 3 -d 4 -p exp -e 200 -c 0 -i 1 -a 0 -x {0.0 4.0 -1 ------- null}
+ -t 5.63520154734775 -s 0 -d 3 -p exp -e 200 -c 0 -i 2 -a 0 -x {0.0 4.0 2 ------- null}
- -t 5.63520154734775 -s 0 -d 3 -p exp -e 200 -c 0 -i 2 -a 0 -x {0.0 4.0 2 ------- null}
h -t 5.63520154734775 -s 0 -d 3 -p exp -e 200 -c 0 -i 2 -a 0 -x {0.0 4.0 -1 ------- null}
r -t 5.64240154734775 -s 3 -d 4 -p exp -e 200 -c 0 -i 1 -a 0 -x {0.0 4.0 1 ------- null}
r -t 5.64680154734775 -s 0 -d 3 -p exp -e 200 -c 0 -i 2 -a 0 -x {0.0 4.0 2 ------- null}
+ -t 5.64680154734775 -s 3 -d 4 -p exp -e 200 -c 0 -i 2 -a 0 -x {0.0 4.0 2 ------- null}
- -t 5.64680154734775 -s 3 -d 4 -p exp -e 200 -c 0 -i 2 -a 0 -x {0.0 4.0 2 ------- null}
h -t 5.64680154734775 -s 3 -d 4 -p exp -e 200 -c 0 -i 2 -a 0 -x {0.0 4.0 -1 ------- null}
+ -t 5.65120154734775 -s 0 -d 3 -p exp -e 200 -c 0 -i 3 -a 0 -x {0.0 4.0 3 ------- null}
- -t 5.65120154734775 -s 0 -d 3 -p exp -e 200 -c 0 -i 3 -a 0 -x {0.0 4.0 3 ------- null}
h -t 5.65120154734775 -s 0 -d 3 -p exp -e 200 -c 0 -i 3 -a 0 -x {0.0 4.0 -1 ------- null}
r -t 5.65840154734775 -s 3 -d 4 -p exp -e 200 -c 0 -i 2 -a 0 -x {0.0 4.0 2 ------- null}
r -t 5.66280154734775 -s 0 -d 3 -p exp -e 200 -c 0 -i 3 -a 0 -x {0.0 4.0 3 ------- null}
+ -t 5.66280154734775 -s 3 -d 4 -p exp -e 200 -c 0 -i 3 -a 0 -x {0.0 4.0 3 ------- null}
- -t 5.66280154734775 -s 3 -d 4 -p exp -e 200 -c 0 -i 3 -a 0 -x {0.0 4.0 3 ------- null}
h -t 5.66280154734775 -s 3 -d 4 -p exp -e 200 -c 0 -i 3 -a 0 -x {0.0 4.0 -1 ------- null}
+ -t 5.66720154734775 -s 0 -d 3 -p exp -e 200 -c 0 -i 4 -a 0 -x {0.0 4.0 4 ------- null}
- -t 5.66720154734775 -s 0 -d 3 -p exp -e 200 -c 0 -i 4 -a 0 -x {0.0 4.0 4 ------- null}
h -t 5.66720154734775 -s 0 -d 3 -p exp -e 200 -c 0 -i 4 -a 0 -x {0.0 4.0 -1 ------- null}
r -t 5.67440154734775 -s 3 -d 4 -p exp -e 200 -c 0 -i 3 -a 0 -x {0.0 4.0 3 ------- null}
r -t 5.67880154734775 -s 0 -d 3 -p exp -e 200 -c 0 -i 4 -a 0 -x {0.0 4.0 4 ------- null}
+ -t 5.67880154734775 -s 3 -d 4 -p exp -e 200 -c 0 -i 4 -a 0 -x {0.0 4.0 4 ------- null}
- -t 5.67880154734775 -s 3 -d 4 -p exp -e 200 -c 0 -i 4 -a 0 -x {0.0 4.0 4 ------- null}
h -t 5.67880154734775 -s 3 -d 4 -p exp -e 200 -c 0 -i 4 -a 0 -x {0.0 4.0 -1 ------- null}
+ -t 5.68320154734775 -s 0 -d 3 -p exp -e 200 -c 0 -i 5 -a 0 -x {0.0 4.0 5 ------- null}
- -t 5.68320154734775 -s 0 -d 3 -p exp -e 200 -c 0 -i 5 -a 0 -x {0.0 4.0 5 ------- null}
h -t 5.68320154734775 -s 0 -d 3 -p exp -e 200 -c 0 -i 5 -a 0 -x {0.0 4.0 -1 ------- null}
r -t 5.69040154734775 -s 3 -d 4 -p exp -e 200 -c 0 -i 4 -a 0 -x {0.0 4.0 4 ------- null}
r -t 5.69480154734775 -s 0 -d 3 -p exp -e 200 -c 0 -i 5 -a 0 -x {0.0 4.0 5 ------- null}
+ -t 5.69480154734775 -s 3 -d 4 -p exp -e 200 -c 0 -i 5 -a 0 -x {0.0 4.0 5 ------- null}
- -t 5.69480154734775 -s 3 -d 4 -p exp -e 200 -c 0 -i 5 -a 0 -x {0.0 4.0 5 ------- null}
h -t 5.69480154734775 -s 3 -d 4 -p exp -e 200 -c 0 -i 5 -a 0 -x {0.0 4.0 -1 ------- null}
+ -t 5.69920154734775 -s 0 -d 3 -p exp -e 200 -c 0 -i 6 -a 0 -x {0.0 4.0 6 ------- null}
- -t 5.69920154734775 -s 0 -d 3 -p exp -e 200 -c 0 -i 6 -a 0 -x {0.0 4.0 6 ------- null}
h -t 5.69920154734775 -s 0 -d 3 -p exp -e 200 -c 0 -i 6 -a 0 -x {0.0 4.0 -1 ------- null}
r -t 5.70640154734775 -s 3 -d 4 -p exp -e 200 -c 0 -i 5 -a 0 -x {0.0 4.0 5 ------- null}
r -t 5.71080154734775 -s 0 -d 3 -p exp -e 200 -c 0 -i 6 -a 0 -x {0.0 4.0 6 ------- null}
+ -t 5.71080154734775 -s 3 -d 4 -p exp -e 200 -c 0 -i 6 -a 0 -x {0.0 4.0 6 ------- null}
- -t 5.71080154734775 -s 3 -d 4 -p exp -e 200 -c 0 -i 6 -a 0 -x {0.0 4.0 6 ------- null}
h -t 5.71080154734775 -s 3 -d 4 -p exp -e 200 -c 0 -i 6 -a 0 -x {0.0 4.0 -1 ------- null}
+ -t 5.71520154734775 -s 0 -d 3 -p exp -e 200 -c 0 -i 7 -a 0 -x {0.0 4.0 7 ------- null}
- -t 5.71520154734775 -s 0 -d 3 -p exp -e 200 -c 0 -i 7 -a 0 -x {0.0 4.0 7 ------- null}
h -t 5.71520154734775 -s 0 -d 3 -p exp -e 200 -c 0 -i 7 -a 0 -x {0.0 4.0 -1 ------- null}
r -t 5.72240154734775 -s 3 -d 4 -p exp -e 200 -c 0 -i 6 -a 0 -x {0.0 4.0 6 ------- null}
r -t 5.72680154734775 -s 0 -d 3 -p exp -e 200 -c 0 -i 7 -a 0 -x {0.0 4.0 7 ------- null}
+ -t 5.72680154734775 -s 3 -d 4 -p exp -e 200 -c 0 -i 7 -a 0 -x {0.0 4.0 7 ------- null}
- -t 5.72680154734775 -s 3 -d 4 -p exp -e 200 -c 0 -i 7 -a 0 -x {0.0 4.0 7 ------- null}
h -t 5.72680154734775 -s 3 -d 4 -p exp -e 200 -c 0 -i 7 -a 0 -x {0.0 4.0 -1 ------- null}
+ -t 5.73120154734775 -s 0 -d 3 -p exp -e 200 -c 0 -i 8 -a 0 -x {0.0 4.0 8 ------- null}
- -t 5.73120154734775 -s 0 -d 3 -p exp -e 200 -c 0 -i 8 -a 0 -x {0.0 4.0 8 ------- null}
h -t 5.73120154734775 -s 0 -d 3 -p exp -e 200 -c 0 -i 8 -a 0 -x {0.0 4.0 -1 ------- null}
r -t 5.73840154734775 -s 3 -d 4 -p exp -e 200 -c 0 -i 7 -a 0 -x {0.0 4.0 7 ------- null}
r -t 5.74280154734775 -s 0 -d 3 -p exp -e 200 -c 0 -i 8 -a 0 -x {0.0 4.0 8 ------- null}
+ -t 5.74280154734775 -s 3 -d 4 -p exp -e 200 -c 0 -i 8 -a 0 -x {0.0 4.0 8 ------- null}
- -t 5.74280154734775 -s 3 -d 4 -p exp -e 200 -c 0 -i 8 -a 0 -x {0.0 4.0 8 ------- null}
h -t 5.74280154734775 -s 3 -d 4 -p exp -e 200 -c 0 -i 8 -a 0 -x {0.0 4.0 -1 ------- null}
+ -t 5.74720154734775 -s 0 -d 3 -p exp -e 200 -c 0 -i 9 -a 0 -x {0.0 4.0 9 ------- null}
- -t 5.74720154734775 -s 0 -d 3 -p exp -e 200 -c 0 -i 9 -a 0 -x {0.0 4.0 9 ------- null}
h -t 5.74720154734775 -s 0 -d 3 -p exp -e 200 -c 0 -i 9 -a 0 -x {0.0 4.0 -1 ------- null}
r -t 5.75440154734775 -s 3 -d 4 -p exp -e 200 -c 0 -i 8 -a 0 -x {0.0 4.0 8 ------- null}
r -t 5.75880154734775 -s 0 -d 3 -p exp -e 200 -c 0 -i 9 -a 0 -x {0.0 4.0 9 ------- null}
+ -t 5.75880154734775 -s 3 -d 4 -p exp -e 200 -c 0 -i 9 -a 0 -x {0.0 4.0 9 ------- null}
- -t 5.75880154734775 -s 3 -d 4 -p exp -e 200 -c 0 -i 9 -a 0 -x {0.0 4.0 9 ------- null}
h -t 5.75880154734775 -s 3 -d 4 -p exp -e 200 -c 0 -i 9 -a 0 -x {0.0 4.0 -1 ------- null}
+ -t 5.76320154734775 -s 0 -d 3 -p exp -e 200 -c 0 -i 10 -a 0 -x {0.0 4.0 10 ------- null}
- -t 5.76320154734775 -s 0 -d 3 -p exp -e 200 -c 0 -i 10 -a 0 -x {0.0 4.0 10 ------- null}
h -t 5.76320154734775 -s 0 -d 3 -p exp -e 200 -c 0 -i 10 -a 0 -x {0.0 4.0 -1 ------- null}
r -t 5.77040154734775 -s 3 -d 4 -p exp -e 200 -c 0 -i 9 -a 0 -x {0.0 4.0 9 ------- null}
r -t 5.77480154734775 -s 0 -d 3 -p exp -e 200 -c 0 -i 10 -a 0 -x {0.0 4.0 10 ------- null}
+ -t 5.77480154734775 -s 3 -d 4 -p exp -e 200 -c 0 -i 10 -a 0 -x {0.0 4.0 10 ------- null}
- -t 5.77480154734775 -s 3 -d 4 -p exp -e 200 -c 0 -i 10 -a 0 -x {0.0 4.0 10 ------- null}
h -t 5.77480154734775 -s 3 -d 4 -p exp -e 200 -c 0 -i 10 -a 0 -x {0.0 4.0 -1 ------- null}
+ -t 5.77920154734775 -s 0 -d 3 -p exp -e 200 -c 0 -i 11 -a 0 -x {0.0 4.0 11 ------- null}
- -t 5.77920154734775 -s 0 -d 3 -p exp -e 200 -c 0 -i 11 -a 0 -x {0.0 4.0 11 ------- null}
h -t 5.77920154734775 -s 0 -d 3 -p exp -e 200 -c 0 -i 11 -a 0 -x {0.0 4.0 -1 ------- null}
r -t 5.78640154734775 -s 3 -d 4 -p exp -e 200 -c 0 -i 10 -a 0 -x {0.0 4.0 10 ------- null}
r -t 5.79080154734775 -s 0 -d 3 -p exp -e 200 -c 0 -i 11 -a 0 -x {0.0 4.0 11 ------- null}
+ -t 5.79080154734775 -s 3 -d 4 -p exp -e 200 -c 0 -i 11 -a 0 -x {0.0 4.0 11 ------- null}
- -t 5.79080154734775 -s 3 -d 4 -p exp -e 200 -c 0 -i 11 -a 0 -x {0.0 4.0 11 ------- null}
h -t 5.79080154734775 -s 3 -d 4 -p exp -e 200 -c 0 -i 11 -a 0 -x {0.0 4.0 -1 ------- null}
+ -t 5.79520154734775 -s 0 -d 3 -p exp -e 200 -c 0 -i 12 -a 0 -x {0.0 4.0 12 ------- null}
- -t 5.79520154734775 -s 0 -d 3 -p exp -e 200 -c 0 -i 12 -a 0 -x {0.0 4.0 12 ------- null}
h -t 5.79520154734775 -s 0 -d 3 -p exp -e 200 -c 0 -i 12 -a 0 -x {0.0 4.0 -1 ------- null}
r -t 5.80240154734775 -s 3 -d 4 -p exp -e 200 -c 0 -i 11 -a 0 -x {0.0 4.0 11 ------- null}
r -t 5.80680154734775 -s 0 -d 3 -p exp -e 200 -c 0 -i 12 -a 0 -x {0.0 4.0 12 ------- null}
+ -t 5.80680154734775 -s 3 -d 4 -p exp -e 200 -c 0 -i 12 -a 0 -x {0.0 4.0 12 ------- null}
- -t 5.80680154734775 -s 3 -d 4 -p exp -e 200 -c 0 -i 12 -a 0 -x {0.0 4.0 12 ------- null}
h -t 5.80680154734775 -s 3 -d 4 -p exp -e 200 -c 0 -i 12 -a 0 -x {0.0 4.0 -1 ------- null}
+ -t 5.81120154734775 -s 0 -d 3 -p exp -e 200 -c 0 -i 13 -a 0 -x {0.0 4.0 13 ------- null}
- -t 5.81120154734775 -s 0 -d 3 -p exp -e 200 -c 0 -i 13 -a 0 -x {0.0 4.0 13 ------- null}
h -t 5.81120154734775 -s 0 -d 3 -p exp -e 200 -c 0 -i 13 -a 0 -x {0.0 4.0 -1 ------- null}
r -t 5.81840154734775 -s 3 -d 4 -p exp -e 200 -c 0 -i 12 -a 0 -x {0.0 4.0 12 ------- null}
r -t 5.82280154734775 -s 0 -d 3 -p exp -e 200 -c 0 -i 13 -a 0 -x {0.0 4.0 13 ------- null}
+ -t 5.82280154734775 -s 3 -d 4 -p exp -e 200 -c 0 -i 13 -a 0 -x {0.0 4.0 13 ------- null}
- -t 5.82280154734775 -s 3 -d 4 -p exp -e 200 -c 0 -i 13 -a 0 -x {0.0 4.0 13 ------- null}
h -t 5.82280154734775 -s 3 -d 4 -p exp -e 200 -c 0 -i 13 -a 0 -x {0.0 4.0 -1 ------- null}
+ -t 5.82720154734775 -s 0 -d 3 -p exp -e 200 -c 0 -i 14 -a 0 -x {0.0 4.0 14 ------- null}
- -t 5.82720154734775 -s 0 -d 3 -p exp -e 200 -c 0 -i 14 -a 0 -x {0.0 4.0 14 ------- null}
h -t 5.82720154734775 -s 0 -d 3 -p exp -e 200 -c 0 -i 14 -a 0 -x {0.0 4.0 -1 ------- null}
r -t 5.83440154734775 -s 3 -d 4 -p exp -e 200 -c 0 -i 13 -a 0 -x {0.0 4.0 13 ------- null}
r -t 5.83880154734775 -s 0 -d 3 -p exp -e 200 -c 0 -i 14 -a 0 -x {0.0 4.0 14 ------- null}
+ -t 5.83880154734775 -s 3 -d 4 -p exp -e 200 -c 0 -i 14 -a 0 -x {0.0 4.0 14 ------- null}
- -t 5.83880154734775 -s 3 -d 4 -p exp -e 200 -c 0 -i 14 -a 0 -x {0.0 4.0 14 ------- null}
h -t 5.83880154734775 -s 3 -d 4 -p exp -e 200 -c 0 -i 14 -a 0 -x {0.0 4.0 -1 ------- null}
+ -t 5.84320154734775 -s 0 -d 3 -p exp -e 200 -c 0 -i 15 -a 0 -x {0.0 4.0 15 ------- null}
- -t 5.84320154734775 -s 0 -d 3 -p exp -e 200 -c 0 -i 15 -a 0 -x {0.0 4.0 15 ------- null}
h -t 5.84320154734775 -s 0 -d 3 -p exp -e 200 -c 0 -i 15 -a 0 -x {0.0 4.0 -1 ------- null}
r -t 5.85040154734775 -s 3 -d 4 -p exp -e 200 -c 0 -i 14 -a 0 -x {0.0 4.0 14 ------- null}
r -t 5.85480154734775 -s 0 -d 3 -p exp -e 200 -c 0 -i 15 -a 0 -x {0.0 4.0 15 ------- null}
+ -t 5.85480154734775 -s 3 -d 4 -p exp -e 200 -c 0 -i 15 -a 0 -x {0.0 4.0 15 ------- null}
- -t 5.85480154734775 -s 3 -d 4 -p exp -e 200 -c 0 -i 15 -a 0 -x {0.0 4.0 15 ------- null}
h -t 5.85480154734775 -s 3 -d 4 -p exp -e 200 -c 0 -i 15 -a 0 -x {0.0 4.0 -1 ------- null}
+ -t 5.85920154734775 -s 0 -d 3 -p exp -e 200 -c 0 -i 16 -a 0 -x {0.0 4.0 16 ------- null}
- -t 5.85920154734775 -s 0 -d 3 -p exp -e 200 -c 0 -i 16 -a 0 -x {0.0 4.0 16 ------- null}
h -t 5.85920154734775 -s 0 -d 3 -p exp -e 200 -c 0 -i 16 -a 0 -x {0.0 4.0 -1 ------- null}
r -t 5.86640154734775 -s 3 -d 4 -p exp -e 200 -c 0 -i 15 -a 0 -x {0.0 4.0 15 ------- null}
r -t 5.87080154734775 -s 0 -d 3 -p exp -e 200 -c 0 -i 16 -a 0 -x {0.0 4.0 16 ------- null}
+ -t 5.87080154734775 -s 3 -d 4 -p exp -e 200 -c 0 -i 16 -a 0 -x {0.0 4.0 16 ------- null}
- -t 5.87080154734775 -s 3 -d 4 -p exp -e 200 -c 0 -i 16 -a 0 -x {0.0 4.0 16 ------- null}
h -t 5.87080154734775 -s 3 -d 4 -p exp -e 200 -c 0 -i 16 -a 0 -x {0.0 4.0 -1 ------- null}
+ -t 5.87520154734775 -s 0 -d 3 -p exp -e 200 -c 0 -i 17 -a 0 -x {0.0 4.0 17 ------- null}
- -t 5.87520154734775 -s 0 -d 3 -p exp -e 200 -c 0 -i 17 -a 0 -x {0.0 4.0 17 ------- null}
h -t 5.87520154734775 -s 0 -d 3 -p exp -e 200 -c 0 -i 17 -a 0 -x {0.0 4.0 -1 ------- null}
r -t 5.88240154734775 -s 3 -d 4 -p exp -e 200 -c 0 -i 16 -a 0 -x {0.0 4.0 16 ------- null}
r -t 5.88680154734775 -s 0 -d 3 -p exp -e 200 -c 0 -i 17 -a 0 -x {0.0 4.0 17 ------- null}
+ -t 5.88680154734775 -s 3 -d 4 -p exp -e 200 -c 0 -i 17 -a 0 -x {0.0 4.0 17 ------- null}
- -t 5.88680154734775 -s 3 -d 4 -p exp -e 200 -c 0 -i 17 -a 0 -x {0.0 4.0 17 ------- null}
h -t 5.88680154734775 -s 3 -d 4 -p exp -e 200 -c 0 -i 17 -a 0 -x {0.0 4.0 -1 ------- null}
+ -t 5.89120154734775 -s 0 -d 3 -p exp -e 200 -c 0 -i 18 -a 0 -x {0.0 4.0 18 ------- null}
- -t 5.89120154734775 -s 0 -d 3 -p exp -e 200 -c 0 -i 18 -a 0 -x {0.0 4.0 18 ------- null}
h -t 5.89120154734775 -s 0 -d 3 -p exp -e 200 -c 0 -i 18 -a 0 -x {0.0 4.0 -1 ------- null}
r -t 5.89840154734775 -s 3 -d 4 -p exp -e 200 -c 0 -i 17 -a 0 -x {0.0 4.0 17 ------- null}
r -t 5.90280154734775 -s 0 -d 3 -p exp -e 200 -c 0 -i 18 -a 0 -x {0.0 4.0 18 ------- null}
+ -t 5.90280154734775 -s 3 -d 4 -p exp -e 200 -c 0 -i 18 -a 0 -x {0.0 4.0 18 ------- null}
- -t 5.90280154734775 -s 3 -d 4 -p exp -e 200 -c 0 -i 18 -a 0 -x {0.0 4.0 18 ------- null}
h -t 5.90280154734775 -s 3 -d 4 -p exp -e 200 -c 0 -i 18 -a 0 -x {0.0 4.0 -1 ------- null}
+ -t 5.90720154734775 -s 0 -d 3 -p exp -e 200 -c 0 -i 19 -a 0 -x {0.0 4.0 19 ------- null}
- -t 5.90720154734775 -s 0 -d 3 -p exp -e 200 -c 0 -i 19 -a 0 -x {0.0 4.0 19 ------- null}
h -t 5.90720154734775 -s 0 -d 3 -p exp -e 200 -c 0 -i 19 -a 0 -x {0.0 4.0 -1 ------- null}
r -t 5.91440154734775 -s 3 -d 4 -p exp -e 200 -c 0 -i 18 -a 0 -x {0.0 4.0 18 ------- null}
r -t 5.91880154734775 -s 0 -d 3 -p exp -e 200 -c 0 -i 19 -a 0 -x {0.0 4.0 19 ------- null}
+ -t 5.91880154734775 -s 3 -d 4 -p exp -e 200 -c 0 -i 19 -a 0 -x {0.0 4.0 19 ------- null}
- -t 5.91880154734775 -s 3 -d 4 -p exp -e 200 -c 0 -i 19 -a 0 -x {0.0 4.0 19 ------- null}
h -t 5.91880154734775 -s 3 -d 4 -p exp -e 200 -c 0 -i 19 -a 0 -x {0.0 4.0 -1 ------- null}
+ -t 5.92320154734775 -s 0 -d 3 -p exp -e 200 -c 0 -i 20 -a 0 -x {0.0 4.0 20 ------- null}
- -t 5.92320154734775 -s 0 -d 3 -p exp -e 200 -c 0 -i 20 -a 0 -x {0.0 4.0 20 ------- null}
h -t 5.92320154734775 -s 0 -d 3 -p exp -e 200 -c 0 -i 20 -a 0 -x {0.0 4.0 -1 ------- null}
r -t 5.93040154734775 -s 3 -d 4 -p exp -e 200 -c 0 -i 19 -a 0 -x {0.0 4.0 19 ------- null}
r -t 5.93480154734775 -s 0 -d 3 -p exp -e 200 -c 0 -i 20 -a 0 -x {0.0 4.0 20 ------- null}
+ -t 5.93480154734775 -s 3 -d 4 -p exp -e 200 -c 0 -i 20 -a 0 -x {0.0 4.0 20 ------- null}
- -t 5.93480154734775 -s 3 -d 4 -p exp -e 200 -c 0 -i 20 -a 0 -x {0.0 4.0 20 ------- null}
h -t 5.93480154734775 -s 3 -d 4 -p exp -e 200 -c 0 -i 20 -a 0 -x {0.0 4.0 -1 ------- null}
+ -t 5.93920154734775 -s 0 -d 3 -p exp -e 200 -c 0 -i 21 -a 0 -x {0.0 4.0 21 ------- null}
- -t 5.93920154734775 -s 0 -d 3 -p exp -e 200 -c 0 -i 21 -a 0 -x {0.0 4.0 21 ------- null}
h -t 5.93920154734775 -s 0 -d 3 -p exp -e 200 -c 0 -i 21 -a 0 -x {0.0 4.0 -1 ------- null}
r -t 5.94640154734775 -s 3 -d 4 -p exp -e 200 -c 0 -i 20 -a 0 -x {0.0 4.0 20 ------- null}
r -t 5.95080154734775 -s 0 -d 3 -p exp -e 200 -c 0 -i 21 -a 0 -x {0.0 4.0 21 ------- null}
+ -t 5.95080154734775 -s 3 -d 4 -p exp -e 200 -c 0 -i 21 -a 0 -x {0.0 4.0 21 ------- null}
- -t 5.95080154734775 -s 3 -d 4 -p exp -e 200 -c 0 -i 21 -a 0 -x {0.0 4.0 21 ------- null}
h -t 5.95080154734775 -s 3 -d 4 -p exp -e 200 -c 0 -i 21 -a 0 -x {0.0 4.0 -1 ------- null}
+ -t 5.95520154734775 -s 0 -d 3 -p exp -e 200 -c 0 -i 22 -a 0 -x {0.0 4.0 22 ------- null}
- -t 5.95520154734775 -s 0 -d 3 -p exp -e 200 -c 0 -i 22 -a 0 -x {0.0 4.0 22 ------- null}
h -t 5.95520154734775 -s 0 -d 3 -p exp -e 200 -c 0 -i 22 -a 0 -x {0.0 4.0 -1 ------- null}
r -t 5.96240154734775 -s 3 -d 4 -p exp -e 200 -c 0 -i 21 -a 0 -x {0.0 4.0 21 ------- null}
r -t 5.96680154734775 -s 0 -d 3 -p exp -e 200 -c 0 -i 22 -a 0 -x {0.0 4.0 22 ------- null}
+ -t 5.96680154734775 -s 3 -d 4 -p exp -e 200 -c 0 -i 22 -a 0 -x {0.0 4.0 22 ------- null}
- -t 5.96680154734775 -s 3 -d 4 -p exp -e 200 -c 0 -i 22 -a 0 -x {0.0 4.0 22 ------- null}
h -t 5.96680154734775 -s 3 -d 4 -p exp -e 200 -c 0 -i 22 -a 0 -x {0.0 4.0 -1 ------- null}
+ -t 5.97120154734775 -s 0 -d 3 -p exp -e 200 -c 0 -i 23 -a 0 -x {0.0 4.0 23 ------- null}
- -t 5.97120154734775 -s 0 -d 3 -p exp -e 200 -c 0 -i 23 -a 0 -x {0.0 4.0 23 ------- null}
h -t 5.97120154734775 -s 0 -d 3 -p exp -e 200 -c 0 -i 23 -a 0 -x {0.0 4.0 -1 ------- null}
r -t 5.97840154734775 -s 3 -d 4 -p exp -e 200 -c 0 -i 22 -a 0 -x {0.0 4.0 22 ------- null}
r -t 5.98280154734775 -s 0 -d 3 -p exp -e 200 -c 0 -i 23 -a 0 -x {0.0 4.0 23 ------- null}
+ -t 5.98280154734775 -s 3 -d 4 -p exp -e 200 -c 0 -i 23 -a 0 -x {0.0 4.0 23 ------- null}
- -t 5.98280154734775 -s 3 -d 4 -p exp -e 200 -c 0 -i 23 -a 0 -x {0.0 4.0 23 ------- null}
h -t 5.98280154734775 -s 3 -d 4 -p exp -e 200 -c 0 -i 23 -a 0 -x {0.0 4.0 -1 ------- null}
+ -t 5.98720154734775 -s 0 -d 3 -p exp -e 200 -c 0 -i 24 -a 0 -x {0.0 4.0 24 ------- null}
- -t 5.98720154734775 -s 0 -d 3 -p exp -e 200 -c 0 -i 24 -a 0 -x {0.0 4.0 24 ------- null}
h -t 5.98720154734775 -s 0 -d 3 -p exp -e 200 -c 0 -i 24 -a 0 -x {0.0 4.0 -1 ------- null}
r -t 5.99440154734775 -s 3 -d 4 -p exp -e 200 -c 0 -i 23 -a 0 -x {0.0 4.0 23 ------- null}
r -t 5.99880154734775 -s 0 -d 3 -p exp -e 200 -c 0 -i 24 -a 0 -x {0.0 4.0 24 ------- null}
+ -t 5.99880154734775 -s 3 -d 4 -p exp -e 200 -c 0 -i 24 -a 0 -x {0.0 4.0 24 ------- null}
- -t 5.99880154734775 -s 3 -d 4 -p exp -e 200 -c 0 -i 24 -a 0 -x {0.0 4.0 24 ------- null}
h -t 5.99880154734775 -s 3 -d 4 -p exp -e 200 -c 0 -i 24 -a 0 -x {0.0 4.0 -1 ------- null}
+ -t 6.00320154734775 -s 0 -d 3 -p exp -e 200 -c 0 -i 25 -a 0 -x {0.0 4.0 25 ------- null}
- -t 6.00320154734775 -s 0 -d 3 -p exp -e 200 -c 0 -i 25 -a 0 -x {0.0 4.0 25 ------- null}
h -t 6.00320154734775 -s 0 -d 3 -p exp -e 200 -c 0 -i 25 -a 0 -x {0.0 4.0 -1 ------- null}
r -t 6.01040154734775 -s 3 -d 4 -p exp -e 200 -c 0 -i 24 -a 0 -x {0.0 4.0 24 ------- null}
r -t 6.01480154734775 -s 0 -d 3 -p exp -e 200 -c 0 -i 25 -a 0 -x {0.0 4.0 25 ------- null}
+ -t 6.01480154734775 -s 3 -d 4 -p exp -e 200 -c 0 -i 25 -a 0 -x {0.0 4.0 25 ------- null}
- -t 6.01480154734775 -s 3 -d 4 -p exp -e 200 -c 0 -i 25 -a 0 -x {0.0 4.0 25 ------- null}
h -t 6.01480154734775 -s 3 -d 4 -p exp -e 200 -c 0 -i 25 -a 0 -x {0.0 4.0 -1 ------- null}
+ -t 6.01920154734775 -s 0 -d 3 -p exp -e 200 -c 0 -i 26 -a 0 -x {0.0 4.0 26 ------- null}
- -t 6.01920154734775 -s 0 -d 3 -p exp -e 200 -c 0 -i 26 -a 0 -x {0.0 4.0 26 ------- null}
h -t 6.01920154734775 -s 0 -d 3 -p exp -e 200 -c 0 -i 26 -a 0 -x {0.0 4.0 -1 ------- null}
r -t 6.02640154734775 -s 3 -d 4 -p exp -e 200 -c 0 -i 25 -a 0 -x {0.0 4.0 25 ------- null}
r -t 6.03080154734775 -s 0 -d 3 -p exp -e 200 -c 0 -i 26 -a 0 -x {0.0 4.0 26 ------- null}
+ -t 6.03080154734775 -s 3 -d 4 -p exp -e 200 -c 0 -i 26 -a 0 -x {0.0 4.0 26 ------- null}
- -t 6.03080154734775 -s 3 -d 4 -p exp -e 200 -c 0 -i 26 -a 0 -x {0.0 4.0 26 ------- null}
h -t 6.03080154734775 -s 3 -d 4 -p exp -e 200 -c 0 -i 26 -a 0 -x {0.0 4.0 -1 ------- null}
+ -t 6.03520154734775 -s 0 -d 3 -p exp -e 200 -c 0 -i 27 -a 0 -x {0.0 4.0 27 ------- null}
- -t 6.03520154734775 -s 0 -d 3 -p exp -e 200 -c 0 -i 27 -a 0 -x {0.0 4.0 27 ------- null}
h -t 6.03520154734775 -s 0 -d 3 -p exp -e 200 -c 0 -i 27 -a 0 -x {0.0 4.0 -1 ------- null}
r -t 6.04240154734775 -s 3 -d 4 -p exp -e 200 -c 0 -i 26 -a 0 -x {0.0 4.0 26 ------- null}
r -t 6.04680154734775 -s 0 -d 3 -p exp -e 200 -c 0 -i 27 -a 0 -x {0.0 4.0 27 ------- null}
+ -t 6.04680154734775 -s 3 -d 4 -p exp -e 200 -c 0 -i 27 -a 0 -x {0.0 4.0 27 ------- null}
- -t 6.04680154734775 -s 3 -d 4 -p exp -e 200 -c 0 -i 27 -a 0 -x {0.0 4.0 27 ------- null}
h -t 6.04680154734775 -s 3 -d 4 -p exp -e 200 -c 0 -i 27 -a 0 -x {0.0 4.0 -1 ------- null}
+ -t 6.05120154734775 -s 0 -d 3 -p exp -e 200 -c 0 -i 28 -a 0 -x {0.0 4.0 28 ------- null}
- -t 6.05120154734775 -s 0 -d 3 -p exp -e 200 -c 0 -i 28 -a 0 -x {0.0 4.0 28 ------- null}
h -t 6.05120154734775 -s 0 -d 3 -p exp -e 200 -c 0 -i 28 -a 0 -x {0.0 4.0 -1 ------- null}
r -t 6.05840154734775 -s 3 -d 4 -p exp -e 200 -c 0 -i 27 -a 0 -x {0.0 4.0 27 ------- null}
r -t 6.06280154734775 -s 0 -d 3 -p exp -e 200 -c 0 -i 28 -a 0 -x {0.0 4.0 28 ------- null}
+ -t 6.06280154734775 -s 3 -d 4 -p exp -e 200 -c 0 -i 28 -a 0 -x {0.0 4.0 28 ------- null}
- -t 6.06280154734775 -s 3 -d 4 -p exp -e 200 -c 0 -i 28 -a 0 -x {0.0 4.0 28 ------- null}
h -t 6.06280154734775 -s 3 -d 4 -p exp -e 200 -c 0 -i 28 -a 0 -x {0.0 4.0 -1 ------- null}
+ -t 6.06720154734775 -s 0 -d 3 -p exp -e 200 -c 0 -i 29 -a 0 -x {0.0 4.0 29 ------- null}
- -t 6.06720154734775 -s 0 -d 3 -p exp -e 200 -c 0 -i 29 -a 0 -x {0.0 4.0 29 ------- null}
h -t 6.06720154734775 -s 0 -d 3 -p exp -e 200 -c 0 -i 29 -a 0 -x {0.0 4.0 -1 ------- null}
r -t 6.07440154734775 -s 3 -d 4 -p exp -e 200 -c 0 -i 28 -a 0 -x {0.0 4.0 28 ------- null}
r -t 6.07880154734775 -s 0 -d 3 -p exp -e 200 -c 0 -i 29 -a 0 -x {0.0 4.0 29 ------- null}
+ -t 6.07880154734775 -s 3 -d 4 -p exp -e 200 -c 0 -i 29 -a 0 -x {0.0 4.0 29 ------- null}
- -t 6.07880154734775 -s 3 -d 4 -p exp -e 200 -c 0 -i 29 -a 0 -x {0.0 4.0 29 ------- null}
h -t 6.07880154734775 -s 3 -d 4 -p exp -e 200 -c 0 -i 29 -a 0 -x {0.0 4.0 -1 ------- null}
+ -t 6.08320154734775 -s 0 -d 3 -p exp -e 200 -c 0 -i 30 -a 0 -x {0.0 4.0 30 ------- null}
- -t 6.08320154734775 -s 0 -d 3 -p exp -e 200 -c 0 -i 30 -a 0 -x {0.0 4.0 30 ------- null}
h -t 6.08320154734775 -s 0 -d 3 -p exp -e 200 -c 0 -i 30 -a 0 -x {0.0 4.0 -1 ------- null}
r -t 6.09040154734775 -s 3 -d 4 -p exp -e 200 -c 0 -i 29 -a 0 -x {0.0 4.0 29 ------- null}
r -t 6.09480154734775 -s 0 -d 3 -p exp -e 200 -c 0 -i 30 -a 0 -x {0.0 4.0 30 ------- null}
+ -t 6.09480154734775 -s 3 -d 4 -p exp -e 200 -c 0 -i 30 -a 0 -x {0.0 4.0 30 ------- null}
- -t 6.09480154734775 -s 3 -d 4 -p exp -e 200 -c 0 -i 30 -a 0 -x {0.0 4.0 30 ------- null}
h -t 6.09480154734775 -s 3 -d 4 -p exp -e 200 -c 0 -i 30 -a 0 -x {0.0 4.0 -1 ------- null}
+ -t 6.09920154734775 -s 0 -d 3 -p exp -e 200 -c 0 -i 31 -a 0 -x {0.0 4.0 31 ------- null}
- -t 6.09920154734775 -s 0 -d 3 -p exp -e 200 -c 0 -i 31 -a 0 -x {0.0 4.0 31 ------- null}
h -t 6.09920154734775 -s 0 -d 3 -p exp -e 200 -c 0 -i 31 -a 0 -x {0.0 4.0 -1 ------- null}
r -t 6.10640154734775 -s 3 -d 4 -p exp -e 200 -c 0 -i 30 -a 0 -x {0.0 4.0 30 ------- null}
r -t 6.11080154734775 -s 0 -d 3 -p exp -e 200 -c 0 -i 31 -a 0 -x {0.0 4.0 31 ------- null}
+ -t 6.11080154734775 -s 3 -d 4 -p exp -e 200 -c 0 -i 31 -a 0 -x {0.0 4.0 31 ------- null}
- -t 6.11080154734775 -s 3 -d 4 -p exp -e 200 -c 0 -i 31 -a 0 -x {0.0 4.0 31 ------- null}
h -t 6.11080154734775 -s 3 -d 4 -p exp -e 200 -c 0 -i 31 -a 0 -x {0.0 4.0 -1 ------- null}
+ -t 6.11520154734775 -s 0 -d 3 -p exp -e 200 -c 0 -i 32 -a 0 -x {0.0 4.0 32 ------- null}
- -t 6.11520154734775 -s 0 -d 3 -p exp -e 200 -c 0 -i 32 -a 0 -x {0.0 4.0 32 ------- null}
h -t 6.11520154734775 -s 0 -d 3 -p exp -e 200 -c 0 -i 32 -a 0 -x {0.0 4.0 -1 ------- null}
r -t 6.12240154734775 -s 3 -d 4 -p exp -e 200 -c 0 -i 31 -a 0 -x {0.0 4.0 31 ------- null}
r -t 6.12680154734775 -s 0 -d 3 -p exp -e 200 -c 0 -i 32 -a 0 -x {0.0 4.0 32 ------- null}
+ -t 6.12680154734775 -s 3 -d 4 -p exp -e 200 -c 0 -i 32 -a 0 -x {0.0 4.0 32 ------- null}
- -t 6.12680154734775 -s 3 -d 4 -p exp -e 200 -c 0 -i 32 -a 0 -x {0.0 4.0 32 ------- null}
h -t 6.12680154734775 -s 3 -d 4 -p exp -e 200 -c 0 -i 32 -a 0 -x {0.0 4.0 -1 ------- null}
+ -t 6.13120154734775 -s 0 -d 3 -p exp -e 200 -c 0 -i 33 -a 0 -x {0.0 4.0 33 ------- null}
- -t 6.13120154734775 -s 0 -d 3 -p exp -e 200 -c 0 -i 33 -a 0 -x {0.0 4.0 33 ------- null}
h -t 6.13120154734775 -s 0 -d 3 -p exp -e 200 -c 0 -i 33 -a 0 -x {0.0 4.0 -1 ------- null}
r -t 6.13840154734775 -s 3 -d 4 -p exp -e 200 -c 0 -i 32 -a 0 -x {0.0 4.0 32 ------- null}
r -t 6.14280154734775 -s 0 -d 3 -p exp -e 200 -c 0 -i 33 -a 0 -x {0.0 4.0 33 ------- null}
+ -t 6.14280154734775 -s 3 -d 4 -p exp -e 200 -c 0 -i 33 -a 0 -x {0.0 4.0 33 ------- null}
- -t 6.14280154734775 -s 3 -d 4 -p exp -e 200 -c 0 -i 33 -a 0 -x {0.0 4.0 33 ------- null}
h -t 6.14280154734775 -s 3 -d 4 -p exp -e 200 -c 0 -i 33 -a 0 -x {0.0 4.0 -1 ------- null}
+ -t 6.14720154734775 -s 0 -d 3 -p exp -e 200 -c 0 -i 34 -a 0 -x {0.0 4.0 34 ------- null}
- -t 6.14720154734775 -s 0 -d 3 -p exp -e 200 -c 0 -i 34 -a 0 -x {0.0 4.0 34 ------- null}
h -t 6.14720154734775 -s 0 -d 3 -p exp -e 200 -c 0 -i 34 -a 0 -x {0.0 4.0 -1 ------- null}
r -t 6.15440154734775 -s 3 -d 4 -p exp -e 200 -c 0 -i 33 -a 0 -x {0.0 4.0 33 ------- null}
r -t 6.15880154734775 -s 0 -d 3 -p exp -e 200 -c 0 -i 34 -a 0 -x {0.0 4.0 34 ------- null}
+ -t 6.15880154734775 -s 3 -d 4 -p exp -e 200 -c 0 -i 34 -a 0 -x {0.0 4.0 34 ------- null}
- -t 6.15880154734775 -s 3 -d 4 -p exp -e 200 -c 0 -i 34 -a 0 -x {0.0 4.0 34 ------- null}
h -t 6.15880154734775 -s 3 -d 4 -p exp -e 200 -c 0 -i 34 -a 0 -x {0.0 4.0 -1 ------- null}
+ -t 6.16320154734775 -s 0 -d 3 -p exp -e 200 -c 0 -i 35 -a 0 -x {0.0 4.0 35 ------- null}
- -t 6.16320154734775 -s 0 -d 3 -p exp -e 200 -c 0 -i 35 -a 0 -x {0.0 4.0 35 ------- null}
h -t 6.16320154734775 -s 0 -d 3 -p exp -e 200 -c 0 -i 35 -a 0 -x {0.0 4.0 -1 ------- null}
r -t 6.17040154734775 -s 3 -d 4 -p exp -e 200 -c 0 -i 34 -a 0 -x {0.0 4.0 34 ------- null}
r -t 6.17480154734775 -s 0 -d 3 -p exp -e 200 -c 0 -i 35 -a 0 -x {0.0 4.0 35 ------- null}
+ -t 6.17480154734775 -s 3 -d 4 -p exp -e 200 -c 0 -i 35 -a 0 -x {0.0 4.0 35 ------- null}
- -t 6.17480154734775 -s 3 -d 4 -p exp -e 200 -c 0 -i 35 -a 0 -x {0.0 4.0 35 ------- null}
h -t 6.17480154734775 -s 3 -d 4 -p exp -e 200 -c 0 -i 35 -a 0 -x {0.0 4.0 -1 ------- null}
+ -t 6.17920154734775 -s 0 -d 3 -p exp -e 200 -c 0 -i 36 -a 0 -x {0.0 4.0 36 ------- null}
- -t 6.17920154734775 -s 0 -d 3 -p exp -e 200 -c 0 -i 36 -a 0 -x {0.0 4.0 36 ------- null}
h -t 6.17920154734775 -s 0 -d 3 -p exp -e 200 -c 0 -i 36 -a 0 -x {0.0 4.0 -1 ------- null}
r -t 6.18640154734775 -s 3 -d 4 -p exp -e 200 -c 0 -i 35 -a 0 -x {0.0 4.0 35 ------- null}
r -t 6.19080154734775 -s 0 -d 3 -p exp -e 200 -c 0 -i 36 -a 0 -x {0.0 4.0 36 ------- null}
+ -t 6.19080154734775 -s 3 -d 4 -p exp -e 200 -c 0 -i 36 -a 0 -x {0.0 4.0 36 ------- null}
- -t 6.19080154734775 -s 3 -d 4 -p exp -e 200 -c 0 -i 36 -a 0 -x {0.0 4.0 36 ------- null}
h -t 6.19080154734775 -s 3 -d 4 -p exp -e 200 -c 0 -i 36 -a 0 -x {0.0 4.0 -1 ------- null}
+ -t 6.19520154734775 -s 0 -d 3 -p exp -e 200 -c 0 -i 37 -a 0 -x {0.0 4.0 37 ------- null}
- -t 6.19520154734775 -s 0 -d 3 -p exp -e 200 -c 0 -i 37 -a 0 -x {0.0 4.0 37 ------- null}
h -t 6.19520154734775 -s 0 -d 3 -p exp -e 200 -c 0 -i 37 -a 0 -x {0.0 4.0 -1 ------- null}
r -t 6.20240154734775 -s 3 -d 4 -p exp -e 200 -c 0 -i 36 -a 0 -x {0.0 4.0 36 ------- null}
r -t 6.20680154734775 -s 0 -d 3 -p exp -e 200 -c 0 -i 37 -a 0 -x {0.0 4.0 37 ------- null}
+ -t 6.20680154734775 -s 3 -d 4 -p exp -e 200 -c 0 -i 37 -a 0 -x {0.0 4.0 37 ------- null}
- -t 6.20680154734775 -s 3 -d 4 -p exp -e 200 -c 0 -i 37 -a 0 -x {0.0 4.0 37 ------- null}
h -t 6.20680154734775 -s 3 -d 4 -p exp -e 200 -c 0 -i 37 -a 0 -x {0.0 4.0 -1 ------- null}
+ -t 6.21120154734775 -s 0 -d 3 -p exp -e 200 -c 0 -i 38 -a 0 -x {0.0 4.0 38 ------- null}
- -t 6.21120154734775 -s 0 -d 3 -p exp -e 200 -c 0 -i 38 -a 0 -x {0.0 4.0 38 ------- null}
h -t 6.21120154734775 -s 0 -d 3 -p exp -e 200 -c 0 -i 38 -a 0 -x {0.0 4.0 -1 ------- null}
r -t 6.21840154734775 -s 3 -d 4 -p exp -e 200 -c 0 -i 37 -a 0 -x {0.0 4.0 37 ------- null}
r -t 6.22280154734775 -s 0 -d 3 -p exp -e 200 -c 0 -i 38 -a 0 -x {0.0 4.0 38 ------- null}
+ -t 6.22280154734775 -s 3 -d 4 -p exp -e 200 -c 0 -i 38 -a 0 -x {0.0 4.0 38 ------- null}
- -t 6.22280154734775 -s 3 -d 4 -p exp -e 200 -c 0 -i 38 -a 0 -x {0.0 4.0 38 ------- null}
h -t 6.22280154734775 -s 3 -d 4 -p exp -e 200 -c 0 -i 38 -a 0 -x {0.0 4.0 -1 ------- null}
+ -t 6.22720154734775 -s 0 -d 3 -p exp -e 200 -c 0 -i 39 -a 0 -x {0.0 4.0 39 ------- null}
- -t 6.22720154734775 -s 0 -d 3 -p exp -e 200 -c 0 -i 39 -a 0 -x {0.0 4.0 39 ------- null}
h -t 6.22720154734775 -s 0 -d 3 -p exp -e 200 -c 0 -i 39 -a 0 -x {0.0 4.0 -1 ------- null}
r -t 6.23440154734775 -s 3 -d 4 -p exp -e 200 -c 0 -i 38 -a 0 -x {0.0 4.0 38 ------- null}
r -t 6.23880154734775 -s 0 -d 3 -p exp -e 200 -c 0 -i 39 -a 0 -x {0.0 4.0 39 ------- null}
+ -t 6.23880154734775 -s 3 -d 4 -p exp -e 200 -c 0 -i 39 -a 0 -x {0.0 4.0 39 ------- null}
- -t 6.23880154734775 -s 3 -d 4 -p exp -e 200 -c 0 -i 39 -a 0 -x {0.0 4.0 39 ------- null}
h -t 6.23880154734775 -s 3 -d 4 -p exp -e 200 -c 0 -i 39 -a 0 -x {0.0 4.0 -1 ------- null}
+ -t 6.24320154734775 -s 0 -d 3 -p exp -e 200 -c 0 -i 40 -a 0 -x {0.0 4.0 40 ------- null}
- -t 6.24320154734775 -s 0 -d 3 -p exp -e 200 -c 0 -i 40 -a 0 -x {0.0 4.0 40 ------- null}
h -t 6.24320154734775 -s 0 -d 3 -p exp -e 200 -c 0 -i 40 -a 0 -x {0.0 4.0 -1 ------- null}
r -t 6.25040154734775 -s 3 -d 4 -p exp -e 200 -c 0 -i 39 -a 0 -x {0.0 4.0 39 ------- null}
r -t 6.25480154734775 -s 0 -d 3 -p exp -e 200 -c 0 -i 40 -a 0 -x {0.0 4.0 40 ------- null}
+ -t 6.25480154734775 -s 3 -d 4 -p exp -e 200 -c 0 -i 40 -a 0 -x {0.0 4.0 40 ------- null}